8
Lattice="8.459999999999999 0.0 0.0 0.0 8.459999999999999 0.0 0.0 0.0 8.459999999999999" Properties=species:S:1:pos:R:3:forces:R:3 energy=-1.711935801217823 pbc="T T T"
Na       6.41395283       1.91990662       7.67332792 -271613.03213069 -221493.78721479  -93138.32530166
Na       4.18068695       4.95752287       8.03095055   44478.12422965   -6518.69917672 -112960.83826571
Na       4.31246758       7.90075493       3.69300699   19929.67432392  -13737.63530716   84025.06896654
Na       8.23982906       2.97728539       3.90395117  -11360.78555998   38237.50041445   -5066.95636876
Cl       4.58017778       0.87936962       7.42740345  293527.33611125  150915.83188364   91593.17289223
Cl       7.16421080       5.12644577       1.27403510  -74165.06846637 -116761.41287600    7812.61194556
Cl       8.27988529       8.03175545       5.62085533  -30189.30426863  108424.53282201  -46521.83394459
Cl       4.18750286       3.83302188       5.23034573   29394.99024884   60933.29249441   74258.16238855
8
Lattice="8.0 0.0 0.0 0.0 8.0 0.0 0.0 0.0 8.0" Properties=species:S:1:pos:R:3:forces:R:3 energy=-1.3774848936680977 pbc="T T T"
Na       7.49958754       1.50817406       0.04903742  363713.46487442  431224.31864270  511567.11356467
Na       6.36871147       6.44243002       5.29353428  -10922.62402959 -347269.61733940 -357466.45724884
Na       1.15779471       2.55996442       3.89204693   49072.17281495   99417.32352867 -261473.72866412
Na       5.46410370       7.88015556       6.58486128 -426914.63979235  149096.35317693  400113.17254583
Cl       3.62183785       5.90626240       3.56432629    5349.88981263   58415.79222023  271407.18140838
Cl       6.16898727       4.03323746       2.27290463  125177.58043787  -50105.29540248   72474.37366031
Cl       4.37587976       0.11005501       0.82337153  229087.81327959   38902.72578548 -379177.58169051
Cl       0.70531571       2.49052644       0.94032115 -334562.69180975 -379684.04654695 -257443.82447725
8
Lattice="10.0 0.0 0.0 0.0 10.0 0.0 0.0 0.0 10.0" Properties=species:S:1:pos:R:3:forces:R:3 energy=-1.1020011291278247 pbc="T T T"
Na       9.37448406       1.88521755       0.06129678  232775.40319117  275983.34260470  327402.79665035
Na       7.96088934       8.05303764       6.61691761   -6993.23769382 -222253.92969668 -228781.32678192
Na       1.44724345       3.19995522       4.86505842   31406.76501200   63627.81166985 -167343.81131716
Na       6.83012962       9.85019398       8.23107624 -273218.94336299   95420.48053659  256055.55109410
Cl       4.52729702       7.38282776       4.45540762    3426.48868845   37388.19393599  173703.37964409
Cl       7.71123362       5.04154682       2.84113073   80110.88426141  -32066.03057002   46385.10009328
Cl       5.46985054       0.13756876       1.02921438  146610.28700764   24899.58995125 -242657.14945636
Cl       0.88164455       3.11315799       1.17540145 -214117.35659941 -242999.76052981 -164765.54692014
