8
Lattice="8.459999999999999 0.0 0.0 0.0 8.459999999999999 0.0 0.0 0.0 8.459999999999999" Properties=species:S:1:pos:R:3:forces:R:3 energy=-1.711935801217823 pbc="T T T"
Na       6.41395283       1.91990662       7.67332792      -0.14070982      -0.11474542      -0.04825055
Na       4.18068695       4.95752287       8.03095055       0.02304201      -0.00337703      -0.05851965
Na       4.31246758       7.90075493       3.69300699       0.01032462      -0.00711682       0.04352940
Na       8.23982906       2.97728539       3.90395117      -0.00588548       0.01980903      -0.00262495
Cl       4.58017778       0.87936962       7.42740345       0.15206258       0.07818233       0.04745008
Cl       7.16421080       5.12644577       1.27403510      -0.03842140      -0.06048855       0.00404734
Cl       8.27988529       8.03175545       5.62085533      -0.01563965       0.05616960      -0.02410075
Cl       4.18750286       3.83302188       5.23034573       0.01522815       0.03156665       0.03846963
8
Lattice="8.0 0.0 0.0 0.0 8.0 0.0 0.0 0.0 8.0" Properties=species:S:1:pos:R:3:forces:R:3 energy=-1.3774848936680977 pbc="T T T"
Na       7.49958754       1.50817406       0.04903742       0.18842268       0.22339685       0.26501864
Na       6.36871147       6.44243002       5.29353428      -0.00565849      -0.17990391      -0.18518641
Na       1.15779471       2.55996442       3.89204693       0.02542196       0.05150340      -0.13545713
Na       5.46410370       7.88015556       6.58486128      -0.22116421       0.07723974       0.20727965
Cl       3.62183785       5.90626240       3.56432629       0.00277152       0.03026245       0.14060318
Cl       6.16898727       4.03323746       2.27290463       0.06484856      -0.02595718       0.03754553
Cl       4.37587976       0.11005501       0.82337153       0.11867952       0.02015366      -0.19643391
Cl       0.70531571       2.49052644       0.94032115      -0.17332105      -0.19669629      -0.13336943
8
Lattice="10.0 0.0 0.0 0.0 10.0 0.0 0.0 0.0 10.0" Properties=species:S:1:pos:R:3:forces:R:3 energy=-1.1020011291278247 pbc="T T T"
Na       9.37448406       1.88521755       0.06129678       0.12058989       0.14297387       0.16961185
Na       7.96088934       8.05303764       6.61691761      -0.00362286      -0.11513921      -0.11852075
Na       1.44724345       3.19995522       4.86505842       0.01627035       0.03296255      -0.08669289
Na       6.83012962       9.85019398       8.23107624      -0.14154177       0.04943282       0.13265023
Cl       4.52729702       7.38282776       4.45540762       0.00177510       0.01936905       0.08998748
Cl       7.71123362       5.04154682       2.84113073       0.04150165      -0.01661189       0.02402992
Cl       5.46985054       0.13756876       1.02921438       0.07595183       0.01289930      -0.12570915
Cl       0.88164455       3.11315799       1.17540145      -0.11092404      -0.12588664      -0.08535721
