8
Lattice="8.459999999999999 0.0 0.0 0.0 8.459999999999999 0.0 0.0 0.0 8.459999999999999" Properties=species:S:1:pos:R:3:forces:R:3 energy=-17119358012.178228 pbc="T T T"
Na       6.41395283       1.91990662       7.67332792 -1407098214.27281284 -1147454192.52379179 -482505460.74409717
Na       4.18068695       4.95752287       8.03095055 230420052.70068371 -33770286.71633197 -585196492.81762409
Na       4.31246758       7.90075493       3.69300699 103246184.22111918 -71168168.76345184 435294004.74450225
Na       8.23982906       2.97728539       3.90395117 -58854838.25564614 198090342.46022385 -26249496.21288645
Cl       4.58017778       0.87936962       7.42740345 1520625822.85692763 781823301.64038944 474500759.42683572
Cl       7.16421080       5.12644577       1.27403510 -384214021.62411124 -604885466.15370262 40473434.69187890
Cl       8.27988529       8.03175545       5.62085533 -156396457.83303612 561696047.20515275 -241007542.80683234
Cl       4.18750286       3.83302188       5.23034573 152281493.87107566 315666469.99982387 384696297.05334121
8
Lattice="8.0 0.0 0.0 0.0 8.0 0.0 0.0 0.0 8.0" Properties=species:S:1:pos:R:3:forces:R:3 energy=-13774848936.680977 pbc="T T T"
Na       7.49958754       1.50817406       0.04903742 1884226846.24912763 2233968539.55517578 2650186430.05018330
Na       6.36871147       6.44243002       5.29353428 -56584931.31439862 -1799039076.27801681 -1851864064.51680851
Na       1.15779471       2.55996442       3.89204693 254219638.12536466 515033970.60000479 -1354571295.03827524
Na       5.46410370       7.88015556       6.58486128 -2211642138.76786089 772397445.96975815 2072796456.70819330
Cl       3.62183785       5.90626240       3.56432629 27715240.10779174 302624495.86315942 1406031799.37550068
Cl       6.16898727       4.03323746       2.27290463 648485636.05137169 -259571755.94032583 375455334.22304201
Cl       4.37587976       0.11005501       0.82337153 1186795237.50640225 201536559.39730307 -1964339096.33719087
Cl       0.70531571       2.49052644       0.94032115 -1733210525.70589066 -1966962850.39453292 -1333694274.00377488
8
Lattice="10.0 0.0 0.0 0.0 10.0 0.0 0.0 0.0 10.0" Properties=species:S:1:pos:R:3:forces:R:3 energy=-11020011291.278246 pbc="T T T"
Na       9.37448406       1.88521755       0.06129678 1205898890.73998570 1429738718.72710156 1696118506.90939379
Na       7.96088934       8.05303764       6.61691761 -36228645.56153328 -1151392129.96540165 -1185207476.41778779
Na       1.44724345       3.19995522       4.86505842 162703544.14808536 329625495.05230278 -866928866.50844800
Na       6.83012962       9.85019398       8.23107624 -1415417678.21578979 494328223.92517066 1326502288.46819329
Cl       4.52729702       7.38282776       4.45540762 17751011.71294918 193690488.66884750 899874771.81412232
Cl       7.71123362       5.04154682       2.84113073 415016471.42544782 -166118886.12244502 240299189.61590132
Cl       5.46985054       0.13756876       1.02921438 759518317.01218629 128992958.40735440 -1257091528.34862781
Cl       0.88164455       3.11315799       1.17540145 -1109240406.29566288 -1258866433.71994233 -853572102.28945374
