8
Lattice="8.459999999999999 0.0 0.0 0.0 8.459999999999999 0.0 0.0 0.0 8.459999999999999" Properties=species:S:1:pos:R:3:forces:R:3 energy=3791.446045 pbc="T T T"
Na       6.41395215       1.91990657       7.67332782    -189.30836487    -215.54490662     -10.64094257
Na       4.18068695       4.95752298       8.03095013      13.48848152     -61.09286118     -99.44993591
Na       4.31246767       7.90075423       3.69300697      43.26710892      -1.47212100      67.08176422
Na       8.23982906       2.97728545       3.90395095     -64.65006256     -24.73045731     -56.31492996
Cl       4.58017757       0.87936959       7.42740283     278.20565796      43.39635086      72.58821869
Cl       7.16421057       5.12644592       1.27403511    -108.32091522    -133.85575867      62.76007080
Cl       8.27988544       8.03175578       5.62085473     -72.64611053      50.58901215      16.56635475
Cl       4.18750265       3.83302194       5.23034571       3.29202700       2.34079552      30.91299248
8
Lattice="8.0 0.0 0.0 0.0 8.0 0.0 0.0 0.0 8.0" Properties=species:S:1:pos:R:3:forces:R:3 energy=4279.564941 pbc="T T T"
Na       7.49958755       1.50817406       0.04903742    -189.30836487    -215.54490662     -10.64094257
Na       6.36871142       6.44242981       5.29353420      13.48848152     -61.09286118     -99.44993591
Na       1.15779466       2.55996422       3.89204664      43.26710892      -1.47212100      67.08176422
Na       5.46410386       7.88015525       6.58486107     -64.65006256     -24.73045731     -56.31492996
Cl       3.62183752       5.90626232       3.56432607     278.20565796      43.39635086      72.58821869
Cl       6.16898700       4.03323729       2.27290457    -108.32091522    -133.85575867      62.76007080
Cl       4.37587999       0.11005501       0.82337151     -72.64611053      50.58901215      16.56635475
Cl       0.70531564       2.49052633       0.94032112       3.29202700       2.34079552      30.91299248
8
Lattice="10.0 0.0 0.0 0.0 10.0 0.0 0.0 0.0 10.0" Properties=species:S:1:pos:R:3:forces:R:3 energy=4298.003418 pbc="T T T"
Na       9.37448444       1.88521758       0.06129678    -189.30836487    -215.54490662     -10.64094257
Na       7.96088927       8.05303726       6.61691775      13.48848152     -61.09286118     -99.44993591
Na       1.44724333       3.19995528       4.86505830      43.26710892      -1.47212100      67.08176422
Na       6.83012982       9.85019406       8.23107634     -64.65006256     -24.73045731     -56.31492996
Cl       4.52729689       7.38282790       4.45540759     278.20565796      43.39635086      72.58821869
Cl       7.71123374       5.04154661       2.84113071    -108.32091522    -133.85575867      62.76007080
Cl       5.46984999       0.13756876       1.02921439     -72.64611053      50.58901215      16.56635475
Cl       0.88164455       3.11315791       1.17540139       3.29202700       2.34079552      30.91299248
