8
Lattice="20.0 0.0 0.0 0.0 20.0 0.0 0.0 0.0 20.0" Properties=species:S:1:pos:R:3 energy=-3.177171816855135 pbc="T T T"
Si       8.58203454      16.38521038      16.12898591
Si      12.93580114      19.41796637      15.04843063
Si       2.52906627      10.73529879       2.43215714
Si       5.38971831      15.70001210      15.84544225
Si      14.68230357       3.12904319       4.82899096
Si      18.15779608      14.83055391      13.54800995
Si       1.21910261      15.25288765       9.28436788
Si      16.37750019      14.64606607       3.43877274
8
Lattice="20.0 0.0 0.0 0.0 20.0 0.0 0.0 0.0 20.0" Properties=species:S:1:pos:R:3 energy=-1.95047810661995 pbc="T T T"
Si       0.77476463      17.87360734       9.58294410
Si       4.77089906      17.51093537      13.92197240
Si      17.40167689      11.63785246       3.34389268
Si      18.23487226      18.47186981      19.87151958
Si       5.76048071      12.75599799       4.95324176
Si      17.93041162       5.18376266       7.91765639
Si       2.18181941       6.03491479       7.16770151
Si       8.95713369       3.96225396      19.56416204
8
Lattice="20.0 0.0 0.0 0.0 20.0 0.0 0.0 0.0 20.0" Properties=species:S:1:pos:R:3 energy=-2.550045883344697 pbc="T T T"
Si      15.67750841      15.11893888       9.16645693
Si       8.25113196       5.76277849       9.83407781
Si      19.59048136       2.41457909      11.97743120
Si      16.46820480       4.12689064       6.31226552
Si      12.70320870       5.94467649      17.43083488
Si      17.53814394      12.78479098      14.73899704
Si      11.38230279      10.63333087      10.55161236
Si      11.42901262       9.85182514      13.28565099
8
Lattice="20.0 0.0 0.0 0.0 20.0 0.0 0.0 0.0 20.0" Properties=species:S:1:pos:R:3 energy=-2.4635878882963715 pbc="T T T"
Si      11.59473103      13.17920330       8.10416882
Si      11.85947089       2.88890464      13.95307165
Si      11.15320554      10.93888492       1.61088312
Si      13.38776350      14.07395541       0.40850201
Si       3.25198168       4.90592481       8.70918080
Si       1.51689721      11.86611159      11.45457249
Si      18.99262277      16.07043346      14.77237117
Si       5.44777405      11.83495150       3.07372747
8
Lattice="20.0 0.0 0.0 0.0 20.0 0.0 0.0 0.0 20.0" Properties=species:S:1:pos:R:3 energy=-2.6706105408251886 pbc="T T T"
Si      18.87424758      15.38118031      10.39269785
Si       4.26479894       6.98343191      15.60850773
Si      15.91677794      19.38779459      15.03924516
Si      15.95781974      10.35538182      17.98618255
Si       8.62559927       8.44126220      12.79594504
Si      11.02978890       8.11612554       6.72285489
Si      11.72357302      15.89460203      16.22201477
Si      12.87902599      15.67610804       1.09259508